 <VTKFile type="UnstructuredGrid" version="0.1" byte_order="BigEndian">
 <UnstructuredGrid>
 <Piece NumberOfPoints="         651 " NumberOfCells="         450 ">
 <CellData Vectors="Electric_Field">
                                   <DataArray type="Float32" Name="Electric_Field" NumberOfComponents="3" Format="ascii">
    -0.17100E+06     0.20905E+07    -0.68872E+07
    -0.47374E+06     0.19413E+07    -0.67840E+07
    -0.66334E+06     0.16802E+07    -0.66021E+07
    -0.69838E+06     0.13730E+07    -0.63842E+07
    -0.57194E+06     0.11147E+07    -0.61809E+07
    -0.37811E+06     0.94248E+06    -0.60289E+07
    -0.12812E+06     0.85374E+06    -0.59479E+07
    -0.17099E+06     0.20905E+07     0.86254E+06
    -0.47372E+06     0.19413E+07     0.75937E+06
    -0.66334E+06     0.16802E+07     0.57744E+06
    -0.69839E+06     0.13730E+07     0.35956E+06
    -0.57194E+06     0.11147E+07     0.15631E+06
    -0.37811E+06     0.94248E+06     0.42991E+04
    -0.12812E+06     0.85374E+06    -0.76698E+05
     0.17099E+06    -0.20905E+07     0.86251E+06
     0.47371E+06    -0.19413E+07     0.75936E+06
     0.66332E+06    -0.16803E+07     0.57745E+06
     0.69841E+06    -0.13730E+07     0.35957E+06
     0.57195E+06    -0.11147E+07     0.15631E+06
     0.37811E+06    -0.94248E+06     0.43032E+04
     0.12812E+06    -0.85374E+06    -0.76695E+05
     0.17099E+06    -0.20905E+07    -0.68872E+07
     0.47369E+06    -0.19413E+07    -0.67840E+07
     0.66332E+06    -0.16803E+07    -0.66021E+07
     0.69841E+06    -0.13730E+07    -0.63842E+07
     0.57195E+06    -0.11147E+07    -0.61810E+07
     0.37812E+06    -0.94248E+06    -0.60289E+07
     0.12812E+06    -0.85374E+06    -0.59479E+07
     0.19160E+04     0.81869E+06    -0.25898E+06
     0.53256E+04     0.81064E+06    -0.25628E+06
     0.75764E+04     0.79631E+06    -0.25146E+06
     0.82299E+04     0.77874E+06    -0.24558E+06
     0.72425E+04     0.76155E+06    -0.23983E+06
     0.49152E+04     0.74804E+06    -0.23532E+06
     0.17351E+04     0.74066E+06    -0.23286E+06
     0.13288E+06    -0.30107E+06    -0.62997E+07
     0.36786E+06    -0.22404E+06    -0.62234E+07
     0.51786E+06    -0.89819E+05    -0.60886E+07
     0.55066E+06     0.65291E+05    -0.59261E+07
     0.46932E+06     0.19996E+06    -0.57711E+07
     0.31157E+06     0.29225E+06    -0.56526E+07
     0.10853E+06     0.33865E+06    -0.55889E+07
     0.12969E+06    -0.16097E+07     0.46348E+06
     0.35899E+06    -0.15192E+07     0.38530E+06
     0.50524E+06    -0.13611E+07     0.24702E+06
     0.53697E+06    -0.11768E+07     0.80271E+05
     0.45730E+06    -0.10135E+07    -0.78813E+05
     0.30343E+06    -0.89884E+06    -0.20053E+06
     0.10566E+06    -0.84020E+06    -0.26598E+06
    -0.12969E+06     0.16097E+07     0.46350E+06
    -0.35899E+06     0.15192E+07     0.38530E+06
    -0.50524E+06     0.13611E+07     0.24702E+06
    -0.53697E+06     0.11768E+07     0.80266E+05
    -0.45730E+06     0.10135E+07    -0.78816E+05
    -0.30343E+06     0.89885E+06    -0.20053E+06
    -0.10566E+06     0.84020E+06    -0.26599E+06
    -0.13289E+06     0.30108E+06    -0.62997E+07
    -0.36788E+06     0.22404E+06    -0.62234E+07
    -0.51787E+06     0.89805E+05    -0.60886E+07
    -0.55065E+06    -0.65302E+05    -0.59260E+07
    -0.46932E+06    -0.19996E+06    -0.57711E+07
    -0.31157E+06    -0.29225E+06    -0.56526E+07
    -0.10853E+06    -0.33865E+06    -0.55889E+07
    -0.19161E+04    -0.81869E+06    -0.25898E+06
    -0.53258E+04    -0.81064E+06    -0.25628E+06
    -0.75765E+04    -0.79631E+06    -0.25146E+06
    -0.82300E+04    -0.77874E+06    -0.24558E+06
    -0.72425E+04    -0.76155E+06    -0.23983E+06
    -0.49151E+04    -0.74804E+06    -0.23532E+06
    -0.17351E+04    -0.74066E+06    -0.23286E+06
     0.43755E+04     0.27023E+06    -0.59639E+06
     0.12165E+05     0.26795E+06    -0.59030E+06
     0.17319E+05     0.26386E+06    -0.57945E+06
     0.18839E+05     0.25881E+06    -0.56617E+06
     0.16608E+05     0.25381E+06    -0.55317E+06
     0.11287E+05     0.24983E+06    -0.54297E+06
     0.39873E+04     0.24763E+06    -0.53739E+06
     0.10868E+06    -0.98938E+05    -0.57479E+07
     0.30133E+06    -0.75150E+05    -0.56910E+07
     0.42644E+06    -0.33870E+05    -0.55901E+07
     0.45952E+06     0.13861E+05    -0.54675E+07
     0.40077E+06     0.56633E+05    -0.53485E+07
     0.26971E+06     0.87033E+05    -0.52559E+07
     0.94784E+05     0.10242E+06    -0.52056E+07
     0.10145E+06    -0.50636E+06     0.15878E+06
     0.28125E+06    -0.47906E+06     0.97545E+05
     0.39788E+06    -0.43150E+06    -0.11113E+05
     0.42850E+06    -0.37601E+06    -0.14333E+06
     0.37346E+06    -0.32555E+06    -0.27164E+06
     0.25118E+06    -0.28903E+06    -0.37159E+06
     0.88242E+05    -0.27028E+06    -0.42589E+06
    -0.10145E+06     0.50636E+06     0.15879E+06
    -0.28125E+06     0.47906E+06     0.97551E+05
    -0.39788E+06     0.43150E+06    -0.11112E+05
    -0.42849E+06     0.37601E+06    -0.14333E+06
    -0.37345E+06     0.32555E+06    -0.27165E+06
    -0.25117E+06     0.28903E+06    -0.37159E+06
    -0.88241E+05     0.27028E+06    -0.42589E+06
    -0.10868E+06     0.98942E+05    -0.57479E+07
    -0.30134E+06     0.75151E+05    -0.56910E+07
    -0.42644E+06     0.33867E+05    -0.55901E+07
    -0.45952E+06    -0.13864E+05    -0.54674E+07
    -0.40076E+06    -0.56634E+05    -0.53485E+07
    -0.26971E+06    -0.87033E+05    -0.52559E+07
    -0.94784E+05    -0.10242E+06    -0.52056E+07
    -0.43757E+04    -0.27023E+06    -0.59639E+06
    -0.12165E+05    -0.26795E+06    -0.59030E+06
    -0.17319E+05    -0.26386E+06    -0.57945E+06
    -0.18839E+05    -0.25881E+06    -0.56617E+06
    -0.16608E+05    -0.25381E+06    -0.55317E+06
    -0.11287E+05    -0.24983E+06    -0.54297E+06
    -0.39873E+04    -0.24763E+06    -0.53739E+06
    -0.15716E-08    -0.69849E-09     0.00000E+00
     0.13679E-08    -0.12224E-08     0.00000E+00
     0.13970E-08    -0.12224E-08     0.00000E+00
    -0.34925E-09    -0.36089E-08     0.00000E+00
    -0.19209E-08    -0.21537E-08     0.00000E+00
    -0.69849E-09    -0.12806E-08     0.00000E+00
    -0.69849E-09    -0.33760E-08     0.00000E+00
     0.00000E+00     0.20955E-08     0.25466E-09
     0.00000E+00     0.37253E-08    -0.40018E-09
     0.00000E+00     0.54715E-08    -0.80036E-10
     0.00000E+00     0.40163E-08     0.87311E-10
     0.00000E+00     0.78580E-08    -0.50932E-10
     0.00000E+00     0.66357E-08    -0.27649E-09
     0.00000E+00     0.31432E-08    -0.80036E-10
    -0.15235E+05    -0.16345E+06    -0.75500E+05
    -0.83590E+04    -0.11310E+06    -0.69908E+05
    -0.50894E+04    -0.74942E+05    -0.65417E+05
    -0.34331E+04    -0.42934E+05    -0.62376E+05
    -0.27297E+04    -0.13966E+05    -0.60858E+05
    -0.37576E+05    -0.14345E+06    -0.73755E+05
    -0.21505E+05    -0.10279E+06    -0.68773E+05
    -0.13540E+05    -0.69296E+05    -0.64685E+05
    -0.93139E+04    -0.40036E+05    -0.61890E+05
    -0.74718E+04    -0.13054E+05    -0.60488E+05
    -0.43716E+05    -0.11641E+06    -0.70979E+05
    -0.27466E+05    -0.87388E+05    -0.66917E+05
    -0.18075E+05    -0.60312E+05    -0.63469E+05
    -0.12779E+05    -0.35279E+05    -0.61074E+05
    -0.10390E+05    -0.11541E+05    -0.59860E+05
    -0.39286E+05    -0.92841E+05    -0.68049E+05
    -0.26878E+05    -0.72134E+05    -0.64903E+05
    -0.18400E+05    -0.50868E+05    -0.62136E+05
    -0.13264E+05    -0.30164E+05    -0.60161E+05
    -0.10811E+05    -0.99196E+04    -0.59135E+05
    -0.32490E+05    -0.76893E+05    -0.65777E+05
    -0.23044E+05    -0.60896E+05    -0.63323E+05
    -0.15743E+05    -0.43671E+05    -0.61046E+05
    -0.11043E+05    -0.26108E+05    -0.59372E+05
    -0.86295E+04    -0.86428E+04    -0.58482E+05
    -0.54727E+04    -0.65565E+05    -0.20588E+06
    -0.31075E+04    -0.47262E+05    -0.18461E+06
    -0.20143E+04    -0.32387E+05    -0.17135E+06
    -0.14563E+04    -0.19005E+05    -0.16350E+06
    -0.12192E+04    -0.62558E+04    -0.15983E+06
    -0.14077E+05    -0.58292E+05    -0.19932E+06
    -0.84144E+04    -0.43256E+05    -0.18122E+06
    -0.55761E+04    -0.30027E+05    -0.16958E+06
    -0.40419E+04    -0.17719E+05    -0.16257E+06
    -0.33730E+04    -0.58371E+04    -0.15925E+06
    -0.16979E+05    -0.48713E+05    -0.19054E+06
    -0.11102E+05    -0.37522E+05    -0.17655E+06
    -0.76560E+04    -0.26494E+05    -0.16701E+06
    -0.56649E+04    -0.15760E+05    -0.16110E+06
    -0.47515E+04    -0.51981E+04    -0.15825E+06
    -0.15949E+05    -0.40173E+05    -0.18208E+06
    -0.11300E+05    -0.31817E+05    -0.17185E+06
    -0.80527E+04    -0.22810E+05    -0.16431E+06
    -0.60047E+04    -0.13676E+05    -0.15946E+06
    -0.49963E+04    -0.45200E+04    -0.15707E+06
    -0.13553E+05    -0.34197E+05    -0.17588E+06
    -0.99800E+04    -0.27423E+05    -0.16827E+06
    -0.70489E+04    -0.19882E+05    -0.16212E+06
    -0.50777E+04    -0.11967E+05    -0.15803E+06
    -0.40165E+04    -0.39735E+04    -0.15599E+06
     0.41173E+03     0.67320E+04    -0.18084E+06
    -0.33349E+02     0.12842E+04    -0.18216E+06
    -0.14110E+03    -0.74912E+03    -0.18225E+06
    -0.15980E+03    -0.10222E+04    -0.18196E+06
    -0.16212E+03    -0.42590E+03    -0.18172E+06
     0.11455E+04     0.47585E+04    -0.18133E+06
     0.66943E+02     0.63844E+03    -0.18220E+06
    -0.29406E+03    -0.89645E+03    -0.18216E+06
    -0.41097E+03    -0.10166E+04    -0.18185E+06
    -0.44665E+03    -0.41174E+03    -0.18161E+06
     0.10158E+04     0.24819E+04    -0.18185E+06
    -0.43744E+02    -0.16008E+03    -0.18221E+06
    -0.44963E+03    -0.11144E+04    -0.18201E+06
    -0.59332E+03    -0.10350E+04    -0.18167E+06
    -0.63716E+03    -0.40227E+03    -0.18143E+06
     0.43088E+03     0.67924E+03    -0.18217E+06
    -0.26725E+03    -0.82461E+03    -0.18215E+06
    -0.57019E+03    -0.13027E+04    -0.18182E+06
    -0.66896E+03    -0.10531E+04    -0.18145E+06
    -0.68711E+03    -0.39420E+03    -0.18121E+06
    -0.85247E+02    -0.33325E+03    -0.18224E+06
    -0.45536E+03    -0.12168E+04    -0.18202E+06
    -0.60177E+03    -0.14000E+04    -0.18162E+06
    -0.60308E+03    -0.10505E+04    -0.18124E+06
    -0.56609E+03    -0.38296E+03    -0.18100E+06
    -0.37258E+04    -0.77581E+04    -0.58104E+05
    -0.65366E+04    -0.23274E+05    -0.58885E+05
    -0.11464E+05    -0.39492E+05    -0.60391E+05
    -0.18169E+05    -0.55418E+05    -0.62487E+05
    -0.27641E+05    -0.69239E+05    -0.64874E+05
    -0.18172E+04    -0.36174E+04    -0.15529E+06
    -0.30619E+04    -0.10809E+05    -0.15712E+06
    -0.51761E+04    -0.18226E+05    -0.16086E+06
    -0.79357E+04    -0.25319E+05    -0.16662E+06
    -0.11714E+05    -0.31266E+05    -0.17398E+06
    -0.22854E+03    -0.37981E+03    -0.18087E+06
    -0.33909E+03    -0.10354E+04    -0.18110E+06
    -0.45676E+03    -0.14345E+04    -0.18149E+06
    -0.47092E+03    -0.13538E+04    -0.18193E+06
    -0.22849E+03    -0.67284E+03    -0.18223E+06
    -0.41456E+05    -0.88198E+05    -0.67496E+05
    -0.53413E+05    -0.10803E+06    -0.70679E+05
    -0.71789E+05    -0.14058E+06    -0.74508E+05
    -0.77668E+05    -0.19260E+06    -0.78400E+05
    -0.39603E+05    -0.24349E+06    -0.81078E+05
    -0.16895E+05    -0.38687E+05    -0.18280E+06
    -0.21052E+05    -0.45930E+05    -0.19428E+06
    -0.27230E+05    -0.57389E+05    -0.20949E+06
    -0.28599E+05    -0.75556E+05    -0.22719E+06
    -0.14259E+05    -0.93549E+05    -0.24150E+06
     0.38696E+03     0.87170E+03    -0.18221E+06
     0.15677E+04     0.32291E+04    -0.18167E+06
     0.34507E+04     0.72177E+04    -0.18038E+06
     0.50241E+04     0.13412E+05    -0.17833E+06
     0.28194E+04     0.19753E+05    -0.17637E+06
     0.16203E+03     0.42479E+03    -0.18172E+06
     0.12112E+04     0.62630E+04    -0.15984E+06
     0.27277E+04     0.14028E+05    -0.60863E+05
     0.44526E+03     0.40991E+03    -0.18162E+06
     0.33641E+04     0.58669E+04    -0.15926E+06
     0.74937E+04     0.13191E+05    -0.60488E+05
     0.63448E+03     0.39894E+03    -0.18144E+06
     0.47534E+04     0.52340E+04    -0.15826E+06
     0.10437E+05     0.11717E+05    -0.59852E+05
     0.68297E+03     0.38745E+03    -0.18122E+06
     0.50201E+04     0.45263E+04    -0.15706E+06
     0.10877E+05     0.99877E+04    -0.59122E+05
     0.56483E+03     0.37147E+03    -0.18102E+06
     0.40281E+04     0.39336E+04    -0.15596E+06
     0.86178E+04     0.85285E+04    -0.58471E+05
     0.16193E+03     0.10215E+04    -0.18195E+06
     0.14525E+04     0.19000E+05    -0.16351E+06
     0.34512E+04     0.43039E+05    -0.62401E+05
     0.41259E+03     0.10134E+04    -0.18185E+06
     0.40395E+04     0.17766E+05    -0.16260E+06
     0.93719E+04     0.40307E+05    -0.61918E+05
     0.59486E+03     0.10257E+04    -0.18167E+06
     0.56584E+04     0.15830E+05    -0.16113E+06
     0.12868E+05     0.35630E+05    -0.61094E+05
     0.66876E+03     0.10324E+04    -0.18145E+06
     0.59888E+04     0.13711E+05    -0.15946E+06
     0.13316E+05     0.30309E+05    -0.60160E+05
     0.60301E+03     0.10173E+04    -0.18124E+06
     0.50537E+04     0.11938E+05    -0.15799E+06
     0.11017E+05     0.25924E+05    -0.59345E+05
     0.14434E+03     0.75437E+03    -0.18225E+06
     0.20072E+04     0.32359E+05    -0.17136E+06
     0.50789E+04     0.75055E+05    -0.65479E+05
     0.29842E+03     0.89836E+03    -0.18216E+06
     0.55649E+04     0.30059E+05    -0.16963E+06
     0.13556E+05     0.69638E+05    -0.64762E+05
     0.46007E+03     0.11081E+04    -0.18201E+06
     0.76258E+04     0.26577E+05    -0.16709E+06
     0.18175E+05     0.60805E+05    -0.63549E+05
     0.58466E+03     0.12787E+04    -0.18181E+06
     0.79880E+04     0.22919E+05    -0.16437E+06
     0.18541E+05     0.51244E+05    -0.62189E+05
     0.61303E+03     0.13538E+04    -0.18160E+06
     0.69889E+04     0.19997E+05    -0.16214E+06
     0.15841E+05     0.43796E+05    -0.61045E+05
     0.27491E+02    -0.12702E+04    -0.18216E+06
     0.31259E+04     0.47231E+05    -0.18460E+06
     0.82694E+04     0.11320E+06    -0.69999E+05
    -0.70542E+02    -0.61908E+03    -0.18221E+06
     0.84193E+04     0.43244E+05    -0.18126E+06
     0.21404E+05     0.10322E+06    -0.68879E+05
     0.62012E+02     0.17466E+03    -0.18221E+06
     0.11045E+05     0.37566E+05    -0.17664E+06
     0.27523E+05     0.88069E+05    -0.67027E+05
     0.30655E+03     0.81664E+03    -0.18213E+06
     0.11186E+05     0.31961E+05    -0.17200E+06
     0.27104E+05     0.72889E+05    -0.65002E+05
     0.47971E+03     0.11942E+04    -0.18198E+06
     0.99195E+04     0.27630E+05    -0.16844E+06
     0.23467E+05     0.61548E+05    -0.63374E+05
    -0.42721E+03    -0.67357E+04    -0.18084E+06
     0.55233E+04     0.65613E+05    -0.20588E+06
     0.15239E+05     0.16349E+06    -0.75567E+05
    -0.11670E+04    -0.47632E+04    -0.18135E+06
     0.14135E+05     0.58313E+05    -0.19935E+06
     0.37412E+05     0.14357E+06    -0.73770E+05
    -0.10187E+04    -0.24627E+04    -0.18187E+06
     0.16960E+05     0.48701E+05    -0.19062E+06
     0.43603E+05     0.11676E+06    -0.70955E+05
    -0.37167E+03    -0.65851E+03    -0.18216E+06
     0.15808E+05     0.40208E+05    -0.18223E+06
     0.39492E+05     0.93379E+05    -0.68047E+05
     0.10475E+03     0.35034E+03    -0.18220E+06
     0.13532E+05     0.34291E+05    -0.17610E+06
     0.32996E+05     0.77602E+05    -0.65808E+05
     0.36470E+04     0.76351E+04    -0.58101E+05
     0.17923E+04     0.35845E+04    -0.15527E+06
     0.22608E+03     0.37133E+03    -0.18089E+06
     0.64840E+04     0.23125E+05    -0.58852E+05
     0.30673E+04     0.10797E+05    -0.15709E+06
     0.32838E+03     0.10121E+04    -0.18110E+06
     0.11564E+05     0.39528E+05    -0.60339E+05
     0.52614E+04     0.18293E+05    -0.16088E+06
     0.42500E+03     0.14089E+04    -0.18148E+06
     0.18383E+05     0.55663E+05    -0.62430E+05
     0.80662E+04     0.25375E+05    -0.16674E+06
     0.42365E+03     0.13605E+04    -0.18190E+06
     0.27881E+05     0.69455E+05    -0.64807E+05
     0.11738E+05     0.31238E+05    -0.17414E+06
     0.20146E+03     0.70633E+03    -0.18220E+06
    -0.28323E+04    -0.19783E+05    -0.17636E+06
     0.14285E+05     0.93567E+05    -0.24151E+06
     0.39537E+05     0.24336E+06    -0.81163E+05
    -0.50310E+04    -0.13492E+05    -0.17834E+06
     0.28603E+05     0.75616E+05    -0.22723E+06
     0.77507E+05     0.19229E+06    -0.78421E+05
    -0.34238E+04    -0.73146E+04    -0.18040E+06
     0.27139E+05     0.57515E+05    -0.20955E+06
     0.71677E+05     0.14041E+06    -0.74457E+05
    -0.14964E+04    -0.32646E+04    -0.18167E+06
     0.20901E+05     0.46052E+05    -0.19436E+06
     0.53679E+05     0.10827E+06    -0.70598E+05
    -0.37909E+03    -0.85544E+03    -0.18218E+06
     0.16832E+05     0.38717E+05    -0.18291E+06
     0.41623E+05     0.88541E+05    -0.67418E+05
     0.10437E+06    -0.48886E+05    -0.58747E+05
     0.27967E+06    -0.75746E+06    -0.71373E+05
     0.43673E+07    -0.12177E+08    -0.20029E+06
     0.15861E+07    -0.64351E+07    -0.18545E+06
     0.48411E+07    -0.20277E+08    -0.62351E+05
     0.98285E+07    -0.50012E+08    -0.38673E+05
     0.56717E+07    -0.14637E+09    -0.41961E+05
     0.43380E+05    -0.92835E+05    -0.59793E+05
     0.23731E+07    -0.19337E+07    -0.80965E+05
     0.49218E+07    -0.52925E+07    -0.11521E+06
     0.14461E+07    -0.10192E+08    -0.24450E+06
     0.47889E+06    -0.12629E+08    -0.12932E+06
     0.10537E+08    -0.90273E+08    -0.40648E+05
     0.82822E+07    -0.29591E+08    -0.36430E+05
     0.13219E+07    -0.14346E+08    -0.10652E+06
     0.72566E+06    -0.46022E+06    -0.63896E+05
     0.72344E+07    -0.91747E+07    -0.12621E+06
     0.97747E+07    -0.13569E+08    -0.11977E+06
     0.91769E+06    -0.28217E+07    -0.11099E+06
     0.51966E+05    -0.24296E+05    -0.15776E+06
     0.13966E+06    -0.37655E+06    -0.22095E+06
     0.22359E+07    -0.57980E+07    -0.25064E+07
     0.79082E+06    -0.31427E+07    -0.12016E+07
     0.26404E+07    -0.92995E+07    -0.40089E+07
     0.45285E+07    -0.21083E+08    -0.34786E+07
     0.23381E+07    -0.57840E+08    -0.36593E+07
     0.21603E+05    -0.46351E+05    -0.16166E+06
     0.11775E+07    -0.95577E+06    -0.28992E+06
     0.24231E+07    -0.25868E+07    -0.61589E+06
     0.75122E+06    -0.49451E+07    -0.26324E+07
     0.33715E+06    -0.61466E+07    -0.47810E+07
     0.45331E+07    -0.36522E+08    -0.35919E+07
     0.40770E+07    -0.13066E+08    -0.33476E+07
     0.94865E+06    -0.68486E+07    -0.47545E+07
     0.36189E+06    -0.22855E+06    -0.18291E+06
     0.35347E+07    -0.44227E+07    -0.89127E+06
     0.46989E+07    -0.64247E+07    -0.13363E+07
     0.45418E+06    -0.13916E+07    -0.47908E+06
     0.53889E+04    -0.24024E+04    -0.18118E+06
     0.11441E+05    -0.28243E+05    -0.18710E+06
     0.16031E+06     0.24777E+06    -0.16710E+06
     0.46880E+05    -0.59241E+05    -0.22420E+06
     0.31811E+06     0.10202E+07     0.55675E+05
    -0.42079E+06     0.41019E+07     0.26629E+06
    -0.52044E+06     0.15900E+08     0.42837E+06
     0.21642E+04    -0.44462E+04    -0.18169E+06
     0.74096E+05    -0.53916E+05    -0.19045E+06
     0.10320E+06    -0.68280E+05    -0.19923E+06
     0.73821E+05     0.11294E+06    -0.21420E+06
     0.11117E+06     0.54663E+06    -0.10169E+06
    -0.77537E+06     0.89492E+07     0.36929E+06
    -0.93548E+05     0.18283E+07     0.14409E+06
     0.33450E+06     0.64595E+06    -0.26745E+05
     0.28840E+05    -0.17487E+05    -0.18351E+06
     0.84187E+05     0.17570E+05    -0.19162E+06
    -0.54686E+05     0.25885E+06    -0.15719E+06
     0.27666E+05    -0.71143E+05    -0.20336E+06
    -0.53849E+04     0.23985E+04    -0.18120E+06
    -0.11442E+05     0.28233E+05    -0.18711E+06
    -0.16032E+06    -0.24776E+06    -0.16709E+06
    -0.46883E+05     0.59241E+05    -0.22420E+06
    -0.31821E+06    -0.10201E+07     0.55697E+05
     0.42103E+06    -0.41015E+07     0.26631E+06
     0.52036E+06    -0.15900E+08     0.42839E+06
    -0.21629E+04     0.44423E+04    -0.18170E+06
    -0.74091E+05     0.53896E+05    -0.19046E+06
    -0.10322E+06     0.68278E+05    -0.19922E+06
    -0.73823E+05    -0.11294E+06    -0.21420E+06
    -0.11117E+06    -0.54662E+06    -0.10169E+06
     0.77528E+06    -0.89497E+07     0.36928E+06
     0.93536E+05    -0.18280E+07     0.14412E+06
    -0.33451E+06    -0.64595E+06    -0.26746E+05
    -0.28834E+05     0.17475E+05    -0.18352E+06
    -0.84193E+05    -0.17566E+05    -0.19161E+06
     0.54675E+05    -0.25886E+06    -0.15718E+06
    -0.27670E+05     0.71136E+05    -0.20337E+06
    -0.51977E+05     0.24304E+05    -0.15774E+06
    -0.13966E+06     0.37658E+06    -0.22095E+06
    -0.22359E+07     0.57979E+07    -0.25064E+07
    -0.79080E+06     0.31427E+07    -0.12016E+07
    -0.26400E+07     0.92990E+07    -0.40089E+07
    -0.45295E+07     0.21081E+08    -0.34786E+07
    -0.23376E+07     0.57843E+08    -0.36593E+07
    -0.21607E+05     0.46362E+05    -0.16165E+06
    -0.11773E+07     0.95572E+06    -0.28993E+06
    -0.24229E+07     0.25867E+07    -0.61592E+06
    -0.75121E+06     0.49451E+07    -0.26324E+07
    -0.33715E+06     0.61466E+07    -0.47810E+07
    -0.45326E+07     0.36524E+08    -0.35919E+07
    -0.40772E+07     0.13064E+08    -0.33476E+07
    -0.94867E+06     0.68485E+07    -0.47545E+07
    -0.36185E+06     0.22859E+06    -0.18291E+06
    -0.35347E+07     0.44227E+07    -0.89132E+06
    -0.46990E+07     0.64246E+07    -0.13364E+07
    -0.45417E+06     0.13917E+07    -0.47910E+06
    -0.10436E+06     0.48863E+05    -0.58746E+05
    -0.27967E+06     0.75745E+06    -0.71341E+05
    -0.43674E+07     0.12177E+08    -0.20024E+06
    -0.15861E+07     0.64351E+07    -0.18538E+06
    -0.48406E+07     0.20276E+08    -0.62209E+05
    -0.98296E+07     0.50011E+08    -0.38531E+05
    -0.56709E+07     0.14637E+09    -0.42114E+05
    -0.43377E+05     0.92821E+05    -0.59788E+05
    -0.23731E+07     0.19337E+07    -0.80891E+05
    -0.49218E+07     0.52925E+07    -0.11511E+06
    -0.14461E+07     0.10192E+08    -0.24445E+06
    -0.47890E+06     0.12629E+08    -0.12930E+06
    -0.10536E+08     0.90276E+08    -0.40811E+05
    -0.82823E+07     0.29589E+08    -0.36232E+05
    -0.13219E+07     0.14346E+08    -0.10651E+06
    -0.72567E+06     0.46020E+06    -0.63867E+05
    -0.72344E+07     0.91746E+07    -0.12610E+06
    -0.97748E+07     0.13569E+08    -0.11969E+06
    -0.91769E+06     0.28217E+07    -0.11093E+06
 </DataArray>
                            <DataArray type="Float32" Name="Electric_Polarization" NumberOfComponents="3" Format="ascii">
     0.00000E+00     0.00000E+00     0.00000E+00
     0.00000E+00     0.00000E+00     0.00000E+00
     0.00000E+00     0.00000E+00     0.00000E+00
     0.00000E+00     0.00000E+00     0.00000E+00
     0.00000E+00     0.00000E+00     0.00000E+00
     0.00000E+00     0.00000E+00     0.00000E+00
     0.00000E+00     0.00000E+00     0.00000E+00
     0.00000E+00     0.00000E+00     0.00000E+00
     0.00000E+00     0.00000E+00     0.00000E+00
     0.00000E+00     0.00000E+00     0.00000E+00
     0.00000E+00     0.00000E+00     0.00000E+00
     0.00000E+00     0.00000E+00     0.00000E+00
     0.00000E+00     0.00000E+00     0.00000E+00
     0.00000E+00     0.00000E+00     0.00000E+00
     0.00000E+00     0.00000E+00     0.00000E+00
     0.00000E+00     0.00000E+00     0.00000E+00
     0.00000E+00     0.00000E+00     0.00000E+00
     0.00000E+00     0.00000E+00     0.00000E+00
     0.00000E+00     0.00000E+00     0.00000E+00
     0.00000E+00     0.00000E+00     0.00000E+00
     0.00000E+00     0.00000E+00     0.00000E+00
     0.00000E+00     0.00000E+00     0.00000E+00
     0.00000E+00     0.00000E+00     0.00000E+00
     0.00000E+00     0.00000E+00     0.00000E+00
     0.00000E+00     0.00000E+00     0.00000E+00
     0.00000E+00     0.00000E+00     0.00000E+00
     0.00000E+00     0.00000E+00     0.00000E+00
     0.00000E+00     0.00000E+00     0.00000E+00
     0.00000E+00     0.00000E+00     0.00000E+00
     0.00000E+00     0.00000E+00     0.00000E+00
     0.00000E+00     0.00000E+00     0.00000E+00
     0.00000E+00     0.00000E+00     0.00000E+00
     0.00000E+00     0.00000E+00     0.00000E+00
     0.00000E+00     0.00000E+00     0.00000E+00
     0.00000E+00     0.00000E+00     0.00000E+00
     0.00000E+00     0.00000E+00     0.00000E+00
     0.00000E+00     0.00000E+00     0.00000E+00
     0.00000E+00     0.00000E+00     0.00000E+00
     0.00000E+00     0.00000E+00     0.00000E+00
     0.00000E+00     0.00000E+00     0.00000E+00
     0.00000E+00     0.00000E+00     0.00000E+00
     0.00000E+00     0.00000E+00     0.00000E+00
     0.00000E+00     0.00000E+00     0.00000E+00
     0.00000E+00     0.00000E+00     0.00000E+00
     0.00000E+00     0.00000E+00     0.00000E+00
     0.00000E+00     0.00000E+00     0.00000E+00
     0.00000E+00     0.00000E+00     0.00000E+00
     0.00000E+00     0.00000E+00     0.00000E+00
     0.00000E+00     0.00000E+00     0.00000E+00
     0.00000E+00     0.00000E+00     0.00000E+00
     0.00000E+00     0.00000E+00     0.00000E+00
     0.00000E+00     0.00000E+00     0.00000E+00
     0.00000E+00     0.00000E+00     0.00000E+00
     0.00000E+00     0.00000E+00     0.00000E+00
     0.00000E+00     0.00000E+00     0.00000E+00
     0.00000E+00     0.00000E+00     0.00000E+00
     0.00000E+00     0.00000E+00     0.00000E+00
     0.00000E+00     0.00000E+00     0.00000E+00
     0.00000E+00     0.00000E+00     0.00000E+00
     0.00000E+00     0.00000E+00     0.00000E+00
     0.00000E+00     0.00000E+00     0.00000E+00
     0.00000E+00     0.00000E+00     0.00000E+00
     0.00000E+00     0.00000E+00     0.00000E+00
     0.00000E+00     0.00000E+00     0.00000E+00
     0.00000E+00     0.00000E+00     0.00000E+00
     0.00000E+00     0.00000E+00     0.00000E+00
     0.00000E+00     0.00000E+00     0.00000E+00
     0.00000E+00     0.00000E+00     0.00000E+00
     0.00000E+00     0.00000E+00     0.00000E+00
     0.00000E+00     0.00000E+00     0.00000E+00
     0.00000E+00     0.00000E+00     0.00000E+00
     0.00000E+00     0.00000E+00     0.00000E+00
     0.00000E+00     0.00000E+00     0.00000E+00
     0.00000E+00     0.00000E+00     0.00000E+00
     0.00000E+00     0.00000E+00     0.00000E+00
     0.00000E+00     0.00000E+00     0.00000E+00
     0.00000E+00     0.00000E+00     0.00000E+00
     0.00000E+00     0.00000E+00     0.00000E+00
     0.00000E+00     0.00000E+00     0.00000E+00
     0.00000E+00     0.00000E+00     0.00000E+00
     0.00000E+00     0.00000E+00     0.00000E+00
     0.00000E+00     0.00000E+00     0.00000E+00
     0.00000E+00     0.00000E+00     0.00000E+00
     0.00000E+00     0.00000E+00     0.00000E+00
     0.00000E+00     0.00000E+00     0.00000E+00
     0.00000E+00     0.00000E+00     0.00000E+00
     0.00000E+00     0.00000E+00     0.00000E+00
     0.00000E+00     0.00000E+00     0.00000E+00
     0.00000E+00     0.00000E+00     0.00000E+00
     0.00000E+00     0.00000E+00     0.00000E+00
     0.00000E+00     0.00000E+00     0.00000E+00
     0.00000E+00     0.00000E+00     0.00000E+00
     0.00000E+00     0.00000E+00     0.00000E+00
     0.00000E+00     0.00000E+00     0.00000E+00
     0.00000E+00     0.00000E+00     0.00000E+00
     0.00000E+00     0.00000E+00     0.00000E+00
     0.00000E+00     0.00000E+00     0.00000E+00
     0.00000E+00     0.00000E+00     0.00000E+00
     0.00000E+00     0.00000E+00     0.00000E+00
     0.00000E+00     0.00000E+00     0.00000E+00
     0.00000E+00     0.00000E+00     0.00000E+00
     0.00000E+00     0.00000E+00     0.00000E+00
     0.00000E+00     0.00000E+00     0.00000E+00
     0.00000E+00     0.00000E+00     0.00000E+00
     0.00000E+00     0.00000E+00     0.00000E+00
     0.00000E+00     0.00000E+00     0.00000E+00
     0.00000E+00     0.00000E+00     0.00000E+00
     0.00000E+00     0.00000E+00     0.00000E+00
     0.00000E+00     0.00000E+00     0.00000E+00
     0.00000E+00     0.00000E+00     0.00000E+00
     0.00000E+00     0.00000E+00     0.00000E+00
     0.00000E+00     0.00000E+00     0.00000E+00
     0.00000E+00     0.00000E+00     0.00000E+00
     0.00000E+00     0.00000E+00     0.00000E+00
     0.00000E+00     0.00000E+00     0.00000E+00
     0.00000E+00     0.00000E+00     0.00000E+00
     0.00000E+00     0.00000E+00     0.00000E+00
     0.00000E+00     0.00000E+00     0.00000E+00
     0.00000E+00     0.00000E+00     0.00000E+00
     0.00000E+00     0.00000E+00     0.00000E+00
     0.00000E+00     0.00000E+00     0.00000E+00
     0.00000E+00     0.00000E+00     0.00000E+00
     0.00000E+00     0.00000E+00     0.00000E+00
     0.00000E+00     0.00000E+00     0.00000E+00
     0.00000E+00     0.00000E+00     0.00000E+00
     0.00000E+00     0.00000E+00     0.00000E+00
     0.00000E+00     0.00000E+00     0.00000E+00
     0.00000E+00     0.00000E+00     0.00000E+00
     0.00000E+00     0.00000E+00     0.00000E+00
     0.00000E+00     0.00000E+00     0.00000E+00
     0.00000E+00     0.00000E+00     0.00000E+00
     0.00000E+00     0.00000E+00     0.00000E+00
     0.00000E+00     0.00000E+00     0.00000E+00
     0.00000E+00     0.00000E+00     0.00000E+00
     0.00000E+00     0.00000E+00     0.00000E+00
     0.00000E+00     0.00000E+00     0.00000E+00
     0.00000E+00     0.00000E+00     0.00000E+00
     0.00000E+00     0.00000E+00     0.00000E+00
     0.00000E+00     0.00000E+00     0.00000E+00
     0.00000E+00     0.00000E+00     0.00000E+00
     0.00000E+00     0.00000E+00     0.00000E+00
     0.00000E+00     0.00000E+00     0.00000E+00
     0.00000E+00     0.00000E+00     0.00000E+00
     0.00000E+00     0.00000E+00     0.00000E+00
     0.00000E+00     0.00000E+00     0.00000E+00
     0.00000E+00     0.00000E+00     0.00000E+00
     0.00000E+00     0.00000E+00     0.00000E+00
     0.00000E+00     0.00000E+00     0.00000E+00
     0.00000E+00     0.00000E+00     0.00000E+00
     0.00000E+00     0.00000E+00     0.00000E+00
     0.00000E+00     0.00000E+00     0.00000E+00
     0.00000E+00     0.00000E+00     0.00000E+00